1.1295e+07
5.6372e+06
1.3764e+06
1.5754e+05
1.1605e+05
1.1605e+05
1.1605e+05
1.1605e+05
1.1605e+05
1.1605e+05
1.1605e+05
1.1605e+05
