   8718388.0333528630        8743308.1241015904        8742870.7387038302        8732527.2674916424        8734533.6900604870        8736134.0385322645        8737654.4384273291        8738311.0613360964        8738149.7987654563        8737021.2858019695        8736129.8676542863        8736917.2372227851        8735720.0623238441        8736246.7268024776        8736771.7001337390        8737063.8286553510        8737448.6648268569        8737193.2946522944        8736904.7653577030        8736711.7717078738        8736971.9321882948        8737285.4776207395        8736952.1850830391        8736933.5905443281        8737069.4190857671        8737168.1859799102        8737410.4767541308        8736460.6267763507        8736863.0724837445        8736548.0374758802        8736897.1919300873        8736900.9519181680        8736859.3617718350        8736883.1164905559        8736738.7903016992        8736978.6882074848        8737133.8642660156        8736420.0494007356        8735772.0058574341        8730345.5177564621        8709766.4955000896        8704679.7066742405        8703624.1950833574        8703456.4391872138        8703400.4215449411        8703398.5840376318        8703391.4856704250        8703382.5553510115        8703382.1103320532        8703381.4788090792     
   6734480.1821714668        6763192.8211635016        6788759.5259552542        6729204.9079363011        6762058.4677111953        6777127.9727196163        6760936.6818510322        6759778.1922743060        6773519.5533080995        6764885.3640128113        6769183.3358516451        6766939.4586533438        6763876.2349601053        6766045.0280047804        6773041.6931790113        6773093.0548549835        6768873.9937865473        6774780.7436096594        6772105.3050655173        6771501.3170479182        6773220.8624414913        6771672.7596967993        6771924.1214269381        6772970.7843872076        6774762.5702908784        6771225.4700961355        6769719.1473509967        6772226.8117983090        6771157.8833550075        6769981.1828434970        6769499.5312598478        6771687.0498641171        6771733.7109370902        6770649.1555424230        6772514.9599367008        6772018.9854521016        6769169.4648768548        6763257.2393452022        6749277.3673756607        6700044.1085935291        6593775.3422138337        6550745.4697492393        6534857.3494301327        6530022.8381560482        6528517.6628651386        6527990.9451218322        6527809.7442847472        6527742.4725135490        6527682.1263450403        6527614.6358801592     
   5429035.7051154999        5511596.0787895629        5621613.9022672158        5601412.2640542910        5705241.0361458734        5750575.1894766027        5772206.6667968715        5782850.4244500119        5827279.3096640827        5820949.4846064635        5836587.8707885770        5824096.3798385262        5847415.8691188050        5860421.9699409278        5883917.6065991679        5871437.3049544822        5880513.9714951878        5896238.2306093033        5895066.4655122599        5887947.4512798619        5890848.0878078844        5898127.4836867275        5888897.9752143910        5907504.5816977154        5904971.5949038938        5893390.2384770075        5889629.2130654138        5896802.0295338444        5896077.6921829749        5899973.8435451370        5899664.3816387169        5901498.8682140848        5905266.4507404966        5897168.3679858418        5903884.6443076050        5898450.0949730864        5880851.2036031140        5845086.4148365166        5764586.4987917710        5581804.0245163236        5235038.4362827446        5049115.6023908248        4959775.9331211187        4922040.7935753707        4906870.3860570509        4900926.9045466846        4898485.5847969623        4897485.9836670598        4896893.1771123111        4896141.8604655527     
   4674282.2794634141        4915836.8475215044        4975681.3433670737        5198606.4180108001        5352885.2056874381        5482986.0461441092        5658500.8701910237        5725670.2442611223        5817060.8548198650        5911040.5169130126        5925260.1335378718        5978269.3024070924        6033807.1697193403        6048708.1214759517        6087786.0380151030        6091937.4650099576        6141904.3598281741        6147437.1668255469        6148527.3884665882        6156968.3224731935        6157513.5565721607        6196699.9464374976        6194022.2694586487        6197005.0266196067        6188096.7484780392        6186199.2581378920        6195968.2147498084        6191980.9357153624        6211324.0983433602        6221314.2909070067        6207609.9823544472        6220072.8851053929        6225438.6691453410        6221346.8738443349        6218901.8519698270        6204496.1059146784        6157899.7682672543        6076164.6204139488        5907799.7808474600        5578338.3913504370        4923934.9741945313        4395969.8694491731        4044492.9183923630        3852107.7389575560        3759785.6846288070        3716029.4659823142        3694935.2632976365        3684458.8131280984        3679898.5887829289        3674497.5216202391     
   4414341.2165326951        4735386.3002096731        4769762.4963861313        5002464.0357095720        5236002.5981201287        5381421.9965941850        5622818.2317207176        5683058.9276158968        5820226.3514712164        5920580.9722035863        5987893.0653946167        6047563.9222454820        6120831.0117254937        6160532.8682952346        6206311.8239797009        6222644.9942708109        6239261.4464681707        6260290.7356995987        6271345.3221357903        6291364.5228107572        6318255.8910606671        6332957.6583127994        6328944.9730710490        6332431.3492133357        6332961.4433114994        6347102.3210611492        6351934.3671267033        6359758.6996823624        6351019.3311158372        6371900.9741504844        6361683.2298746873        6372118.5450589117        6377087.6976592597        6380370.4322286528        6367336.3314015912        6345712.8296219464        6306295.5052776262        6210125.4359085234        6058011.0929327374        5771784.9258665796        5267372.8921833253        4784555.1471270351        4207848.7499018032        3670444.4190662298        3272745.5709578209        3042799.9748542015        2920315.8385088625        2838936.8830747111        2800446.9932563165        2772135.3273334550     
   4223468.0736797331        4649426.3006018577        4610468.0409871731        4913995.0969889322        5049041.8487304375        5289060.4243049426        5581647.0070115998        5645417.5694749886        5849756.2568155890        5952643.4428839777        6032247.1089600455        6090234.5817275411        6226937.4900477976        6245368.3606654517        6298187.8947158717        6333039.0733222049        6357801.4758867687        6380870.6649114331        6396601.0831906619        6422091.0521341460        6449654.5175729152        6463081.1663264558        6447810.1169910356        6494264.4317786880        6474935.8783337688        6489824.4905726826        6493108.0367003968        6501242.5172462957        6506719.6860133447        6525973.2138331179        6512153.5082867043        6528679.5423476445        6525907.5878660120        6523163.8391179629        6514993.5112336800        6477182.5555789713        6419265.8514617719        6325715.9758374402        6140809.3999471972        5846718.8773144567        5303863.9851897601        4810831.9218099276        4418434.2070841659        4134105.2530836901        3717413.7347910213        3233488.5378672346        2830593.0170408706        2519171.8770640846        2315580.9417229597        2159684.2949816622     
   4106584.3951038080        4321049.9257501205        4468594.4522577049        4686208.5424606409        4949017.3418046823        5260348.2344657229        5521794.6627285872        5658373.9066135185        5862062.7073177481        5980836.0689999918        6057538.1282663280        6152594.2931547165        6273036.5502362335        6303428.0083821220        6363606.5081369141        6398510.0880446509        6438655.0551854437        6458290.4338805722        6485348.9856396075        6513299.8221524153        6531296.9757901970        6554646.3826853838        6560786.6772370255        6568951.1220801100        6580608.0671742745        6595185.9187493911        6593792.5081803603        6609001.7407157039        6611534.2941429168        6624153.8521454418        6637317.7128092134        6626413.4621026311        6626205.6333158026        6622860.5326655153        6608024.3117197370        6578312.1874860879        6499325.4872800792        6393431.4320969619        6210580.2015400212        5927048.7606504923        5438744.4640118424        4983399.2473539906        4524982.6695345296        4094455.4686111910        3737251.9334862521        3450022.9210358923        3138227.1887710625        2727988.2576812240        2277846.0710384930        1857765.8070265939     
   4190305.0523247654        4310778.1424051709        4335187.0092122387        4682369.5966626043        4854363.1521844836        5149438.2012062836        5482099.8270865455        5681038.7660719128        5835897.6543482170        5987033.7338746712        6114156.8138359766        6187536.6318011740        6312620.4643780068        6340443.3031373955        6423320.1839597002        6447707.0207789727        6490589.1726337792        6521346.6914385604        6550663.2626877753        6582662.0919669541        6595623.7933022212        6644965.7992009344        6634633.7806019299        6643433.0934753055        6659213.6868858319        6674098.1773082772        6684686.0733712427        6690107.5640393021        6696461.9003163967        6708392.3552665478        6717580.5909482874        6717122.6424419992        6708839.0880355593        6711222.9348614616        6684123.7606299259        6632845.4860542901        6560261.3606788758        6448163.0572777325        6264371.5294162305        5977931.4762251899        5498296.6444632011        5059467.5413760422        4651155.3609034326        4296087.7425493579        3960281.6392155024        3600740.7415935905        3250194.6568351146        2965019.8917247187        2480608.5400315025        1783954.4872907808     
