1.2829E+03
1.2968E+03
1.3723E+03
1.4511E+03
1.5695E+03
1.7086E+03
1.8329E+03
1.8954E+03
1.9189E+03
1.9331E+03
1.9485E+03
1.9791E+03
1.9664E+03
1.9962E+03
1.9913E+03
2.0170E+03
2.0345E+03
2.0119E+03
2.1451E+03
1.0970E+03
1.9803E+03
2.0044E+03
2.6331E+03
1.3886E+03
3.0434E+03
1.9531E+03
1.0000E+03
5.3651E+03
7.2415E+03
9.7756E+03
1.2051E+04
1.7387E+04
2.2133E+04
2.7304E+04
3.5172E+04
4.4656E+04
5.2824E+04
5.7401E+04
5.9794E+04
6.0723E+04
6.2382E+04
6.4165E+04
6.6223E+04
6.8425E+04
7.0713E+04
7.3060E+04
7.5495E+04
7.7778E+04
8.0089E+04
8.2407E+04
8.4390E+04
8.5999E+04
8.6679E+04
8.6368E+04
8.5376E+04
8.1124E+04
7.1624E+04
4.6459E+04
2.0552E+04
1.6830E+04
1.5628E+04
1.3755E+04
1.1244E+04
8.7333E+03
