1.2254e+07
1.1775e+07
1.0874e+07
9.6469e+06
8.2214e+06
6.7288e+06
5.2871e+06
3.9866e+06
2.8834e+06
1.9993e+06
1.3281e+06
8.4464e+05
5.1383e+05
2.9874e+05
1.6581e+05
1.1605e+05
1.1605e+05
1.1605e+05
1.1605e+05
1.1605e+05
1.1605e+05
1.1605e+05
1.1605e+05
1.1605e+05
1.1605e+05
1.1605e+05
1.1605e+05
1.1605e+05
1.1605e+05
1.1605e+05
1.1605e+05
1.1605e+05
1.1605e+05
1.1605e+05
1.1605e+05
1.1605e+05
1.1605e+05
1.1605e+05
1.1605e+05
1.1605e+05
1.1605e+05
1.1605e+05
1.1605e+05
1.1605e+05
1.1605e+05
1.1605e+05
1.1605e+05
1.1605e+05
1.1605e+05
1.1605e+05
