1.2072e+07
1.0293e+07
7.4756e+06
4.6149e+06
2.4138e+06
1.0650e+06
3.9404e+05
1.2136e+05
1.1605e+05
1.1605e+05
1.1605e+05
1.1605e+05
1.1605e+05
1.1605e+05
1.1605e+05
1.1605e+05
1.1605e+05
1.1605e+05
1.1605e+05
1.1605e+05
1.1605e+05
1.1605e+05
1.1605e+05
1.1605e+05
1.1605e+05
